# vtk DataFile Version 2.0
Mesh from BetaMesh utility
ASCII
DATASET UNSTRUCTURED_GRID
POINTS 65 double
0.00409873 0.00454048 0.000466341
0.00407079 0.00454048 0.000577282
0.00387771 0.00454048 0.000713584
0.00378755 0.00454048 0.000722495
0.00369437 0.00454048 0.000724777
0.00396018 0.00454048 0.000691775
0.00359839 0.00454048 0.000723903
0.00350091 0.00454048 0.00072186
0.00402327 0.00454048 0.00065125
0.00313029 0.00454048 0.000227592
0.00350866 0.00454048 0.000244476
0.00172247 0.00454048 0.000734523
0.00369469 0.00454048 0.000255886
0.0013736 0.00454048 0.000638888
0.00127661 0.00454048 0.000496851
0.00162886 0.00454048 0.00073283
0.0015368 0.00454048 0.000723089
0.00241171 0.00454048 0.000243983
0.00203182 0.00454048 0.000248058
0.00133376 0.00454048 0.000423705
0.00296028 0.00454048 0.000236496
0.00341417 0.00454048 0.000242946
0.00378445 0.00454048 0.000275057
0.00283295 0.00454048 0.000751958
0.00218845 0.00454048 0.000753615
0.00249389 0.00454048 0.00024184
0.00386785 0.00454048 0.000303404
0.00393588 0.00454048 0.000340339
0.00322762 0.00454048 0.000231009
0.00360294 0.00454048 0.000246376
0.00174579 0.00454048 0.00026449
0.00332106 0.00454048 0.000238118
0.00268832 0.00454048 0.000245807
0.00140424 0.00454048 0.00036569
0.00183988 0.00454048 0.000257895
0.00228553 0.00454048 0.000750632
0.00331055 0.00454048 0.000738984
0.00181783 0.00454048 0.00073574
0.0040082 0.00454048 0.000390522
0.00273915 0.00454048 0.000755433
0.00165302 0.00454048 0.000274295
0.00209563 0.00454048 0.000753737
0.00191295 0.00454048 0.000740112
0.00340452 0.00454048 0.000726012
0.00278426 0.00454048 0.00025061
0.00130502 0.00454048 0.000572407
0.00232421 0.00454048 0.000248988
0.00293849 0.00454048 0.000754413
0.00322093 0.00454048 0.000755384
0.00303706 0.00454048 0.000763481
0.00287885 0.00454048 0.000249313
0.00237573 0.00454048 0.000751922
0.00313069 0.00454048 0.000764193
0.00147975 0.00454048 0.000321302
0.00156392 0.00454048 0.000289852
0.00222423 0.00454048 0.000247746
0.00200565 0.00454048 0.000747543
0.00255477 0.00454048 0.000749749
0.00212602 0.00454048 0.000245245
0.00193588 0.00454048 0.000252812
0.00265196 0.00454048 0.000752364
0.00246047 0.00454048 0.000752695
0.00145037 0.00454048 0.000693875
0.00258996 0.00454048 0.000244552
0.00303812 0.00454048 0.000227787
CELLS 65 195
2  38 27
2  27 26
2  26 22
2  22 12
2  12 29
2  29 10
2  10 21
2  21 31
2  31 28
2  28 9
2  9 64
2  64 20
2  20 50
2  50 44
2  44 32
2  32 63
2  63 25
2  25 17
2  17 46
2  46 55
2  55 58
2  58 18
2  18 59
2  59 34
2  34 30
2  30 40
2  40 54
2  54 53
2  53 33
2  33 19
2  19 14
2  14 45
2  45 13
2  13 62
2  62 16
2  16 15
2  15 11
2  11 37
2  37 42
2  42 56
2  56 41
2  41 24
2  24 35
2  35 51
2  51 61
2  61 57
2  57 60
2  60 39
2  39 23
2  23 47
2  47 49
2  49 52
2  52 48
2  48 36
2  36 43
2  43 7
2  7 6
2  6 4
2  4 3
2  3 2
2  2 5
2  5 8
2  8 1
2  1 0
2  0 38
CELL_TYPES 65
3
3
3
3
3
3
3
3
3
3
3
3
3
3
3
3
3
3
3
3
3
3
3
3
3
3
3
3
3
3
3
3
3
3
3
3
3
3
3
3
3
3
3
3
3
3
3
3
3
3
3
3
3
3
3
3
3
3
3
3
3
3
3
3
3
CELL_DATA 65
SCALARS DomainIDs int 1
LOOKUP_TABLE default
0
0
0
0
0
0
0
0
0
0
0
0
0
0
0
0
0
0
0
0
0
0
0
0
0
0
0
0
0
0
0
0
0
0
0
0
0
0
0
0
0
0
0
0
0
0
0
0
0
0
0
0
0
0
0
0
0
0
0
0
0
0
0
0
0
