# vtk DataFile Version 2.0
Mesh from BetaMesh utility
ASCII
DATASET UNSTRUCTURED_GRID
POINTS 123 double
0.00404643 -0.000802183 0.0
0.00400945 -0.000910447 0.0
0.0038058 -0.00103039 0.0
0.00371521 -0.00103185 0.0
0.00362216 -0.00102645 0.0
0.00388978 -0.00101545 0.0
0.00352658 -0.00101768 0.0
0.0034296 -0.00100762 0.0
0.003956 -0.000980252 0.0
0.00310092 -0.000484519 0.0
0.00347663 -0.000532494 0.0
0.00165615 -0.000873831 0.0
0.00366108 -0.00055918 0.0
0.00131634 -0.0007498 0.0
0.00123137 -0.00060026 0.0
0.001563 -0.000864437 0.0
0.00147205 -0.000847151 0.0
0.00238344 -0.000441697 0.0
0.00200451 -0.000414485 0.0
0.00129435 -0.000532068 0.0
0.00293076 -0.000479396 0.0
0.00338258 -0.000523191 0.0
0.00374896 -0.000585675 0.0
0.00276143 -0.000982625 0.0
0.00211898 -0.00093122 0.0
0.00246551 -0.000446327 0.0
0.00382974 -0.000620792 0.0
0.00389451 -0.000663203 0.0
0.00319765 -0.000495937 0.0
0.00357043 -0.000542149 0.0
0.00171809 -0.000407313 0.0
0.00329018 -0.000510713 0.0
0.00265896 -0.000466286 0.0
0.00136937 -0.000480052 0.0
0.0018124 -0.000408486 0.0
0.00221598 -0.000936239 0.0
0.00323848 -0.00100901 0.0
0.00175109 -0.000882894 0.0
0.00396244 -0.000719169 0.0
0.00266766 -0.000978368 0.0
0.00162482 -0.000409447 0.0
0.00202646 -0.000923699 0.0
0.00184553 -0.000895082 0.0
0.00333319 -0.00100382 0.0
0.00275418 -0.000478972 0.0
0.00125347 -0.000677899 0.0
0.00229582 -0.000439482 0.0
0.00286641 -0.000993761 0.0
0.00314781 -0.00101798 0.0
0.0029639 -0.00101091 0.0
0.00284856 -0.000485466 0.0
0.00230576 -0.00094495 0.0
0.00305715 -0.00101933 0.0
0.00144828 -0.000442031 0.0
0.00153475 -0.000417617 0.0
0.00219628 -0.000430013 0.0
0.0019373 -0.00091012 0.0
0.00248438 -0.000957523 0.0
0.00209862 -0.000419436 0.0
0.00190849 -0.000411323 0.0
0.00258102 -0.000968131 0.0
0.00239015 -0.000952696 0.0
0.00138833 -0.000810921 0.0
0.00256104 -0.000456939 0.0
0.00300906 -0.000477125 0.0
0.00237104 -0.000697404 0.0
0.00290852 -0.000737821 0.0
0.00374621 -0.000819003 0.0
0.00155846 -0.000640421 0.0
0.00182892 -0.000651787 0.0
0.00209317 -0.00067595 0.0
0.00327236 -0.000760697 0.0
0.00258964 -0.000674839 0.0
0.00293772 -0.00087406 0.0
0.00304221 -0.000639646 0.0
0.00204474 -0.000546606 0.0
0.00217457 -0.000796658 0.0
0.00223135 -0.000589301 0.0
0.00254833 -0.000820397 0.0
0.00279157 -0.000834144 0.0
0.0019622 -0.000651249 0.0
0.00191199 -0.000777053 0.0
0.00192162 -0.000534359 0.0
0.00291631 -0.000608322 0.0
0.00275749 -0.000663744 0.0
0.00204543 -0.00079595 0.0
0.00214807 -0.000524132 0.0
0.0024842 -0.000723555 0.0
0.00248385 -0.000584334 0.0
0.00240151 -0.000823484 0.0
0.00229119 -0.000783423 0.0
0.00267279 -0.000777078 0.0
0.00263776 -0.000876897 0.0
0.00179043 -0.000767485 0.0
0.00169266 -0.000670711 0.0
0.00167438 -0.000536019 0.0
0.00160389 -0.000751555 0.0
0.002668 -0.000585087 0.0
0.00235729 -0.000570869 0.0
0.00156166 -0.000527418 0.0
0.00179797 -0.000532059 0.0
0.0038867 -0.000839198 0.0
0.00382805 -0.000748425 0.0
0.00380384 -0.000916851 0.0
0.00140823 -0.000630544 0.0
0.00146091 -0.000543224 0.0
0.00147727 -0.000727908 0.0
0.00318812 -0.000641549 0.0
0.0031136 -0.000842627 0.0
0.00301286 -0.000786703 0.0
0.00316493 -0.000747303 0.0
0.00303581 -0.000915148 0.0
0.00323443 -0.000881992 0.0
0.00351059 -0.000779268 0.0
0.00338431 -0.00086186 0.0
0.00349926 -0.000899771 0.0
0.00361977 -0.000850319 0.0
0.00365119 -0.000706278 0.0
0.00369654 -0.00092581 0.0
0.00374947 -0.000686019 0.0
0.00353796 -0.000660064 0.0
0.00339766 -0.0006906 0.0
0.0033024 -0.000625469 0.0
CELLS 179 716
3  106 15 96
3  110 74 109
3  94 96 93
3  107 31 28
3  65 88 98
3  93 11 37
3  15 106 16
3  11 96 15
3  62 16 106
3  100 94 69
3  96 68 106
3  13 104 45
3  30 95 100
3  40 54 99
3  98 46 77
3  48 108 111
3  60 78 57
3  102 26 119
3  76 85 24
3  51 89 90
3  24 85 41
3  93 81 69
3  58 18 75
3  42 56 81
3  91 92 79
3  76 70 85
3  85 80 81
3  76 77 70
3  94 68 96
3  88 97 63
3  70 75 80
3  14 45 19
3  69 81 80
3  33 19 104
3  19 45 104
3  85 56 41
3  69 80 82
3  99 53 105
3  84 50 44
3  104 105 33
3  94 95 68
3  20 50 83
3  30 40 95
3  100 59 34
3  11 93 96
3  77 55 86
3  18 82 75
3  98 77 65
3  58 75 86
3  82 18 59
3  84 83 50
3  100 95 94
3  114 112 43
3  82 80 75
3  86 70 77
3  80 85 70
3  92 60 39
3  46 55 77
3  65 87 88
3  66 83 84
3  88 63 25
3  72 84 97
3  111 108 109
3  42 93 37
3  48 112 108
3  57 78 89
3  79 66 84
3  74 83 66
3  91 72 78
3  24 35 76
3  79 47 73
3  73 109 66
3  22 12 117
3  7 6 115
3  81 93 42
3  73 111 109
3  67 117 116
3  52 111 49
3  103 118 3
3  92 39 23
3  76 90 77
3  8 103 5
3  3 118 4
3  8 101 103
3  101 8 1
3  92 91 78
3  84 91 79
3  114 7 115
3  60 92 78
3  79 73 66
3  93 69 94
3  0 101 1
3  97 44 32
3  64 20 83
3  90 35 51
3  9 64 74
3  9 74 107
3  70 86 75
3  49 73 47
3  72 91 84
3  99 95 40
3  83 74 64
3  61 89 51
3  78 87 89
3  58 86 55
3  97 32 63
3  89 65 90
3  22 119 26
3  77 90 65
3  102 101 38
3  3 2 103
3  89 61 57
3  79 92 23
3  113 120 121
3  114 113 121
3  121 71 114
3  88 72 97
3  89 87 65
3  120 117 12
3  87 78 72
3  25 17 98
3  122 31 107
3  0 38 101
3  88 87 72
3  90 76 35
3  23 47 79
3  100 69 82
3  56 85 81
3  44 97 84
3  25 98 88
3  46 98 17
3  53 99 54
3  68 95 99
3  59 100 82
3  30 100 34
3  102 38 27
3  67 103 101
3  26 102 27
3  67 101 102
3  67 116 118
3  5 103 2
3  106 13 62
3  68 99 105
3  33 105 53
3  68 105 104
3  68 104 106
3  106 104 13
3  71 121 122
3  9 107 28
3  112 48 36
3  110 71 107
3  110 109 108
3  74 66 109
3  74 110 107
3  112 110 108
3  49 111 73
3  48 111 52
3  43 112 36
3  110 112 71
3  116 117 113
3  113 117 120
3  112 114 71
3  7 114 43
3  4 115 6
3  113 114 115
3  113 115 116
3  4 116 115
3  67 102 119
3  12 29 120
3  67 118 103
3  4 118 116
3  22 117 119
3  67 119 117
3  29 10 120
3  121 10 21
3  10 121 120
3  122 21 31
3  71 122 107
3  21 122 121
CELL_TYPES 179
5
5
5
5
5
5
5
5
5
5
5
5
5
5
5
5
5
5
5
5
5
5
5
5
5
5
5
5
5
5
5
5
5
5
5
5
5
5
5
5
5
5
5
5
5
5
5
5
5
5
5
5
5
5
5
5
5
5
5
5
5
5
5
5
5
5
5
5
5
5
5
5
5
5
5
5
5
5
5
5
5
5
5
5
5
5
5
5
5
5
5
5
5
5
5
5
5
5
5
5
5
5
5
5
5
5
5
5
5
5
5
5
5
5
5
5
5
5
5
5
5
5
5
5
5
5
5
5
5
5
5
5
5
5
5
5
5
5
5
5
5
5
5
5
5
5
5
5
5
5
5
5
5
5
5
5
5
5
5
5
5
5
5
5
5
5
5
5
5
5
5
5
5
5
5
5
5
5
5
CELL_DATA 179
SCALARS DomainIDs int 1
LOOKUP_TABLE default
0
0
0
0
0
0
0
0
0
0
0
0
0
0
0
0
0
0
0
0
0
0
0
0
0
0
0
0
0
0
0
0
0
0
0
0
0
0
0
0
0
0
0
0
0
0
0
0
0
0
0
0
0
0
0
0
0
0
0
0
0
0
0
0
0
0
0
0
0
0
0
0
0
0
0
0
0
0
0
0
0
0
0
0
0
0
0
0
0
0
0
0
0
0
0
0
0
0
0
0
0
0
0
0
0
0
0
0
0
0
0
0
0
0
0
0
0
0
0
0
0
0
0
0
0
0
0
0
0
0
0
0
0
0
0
0
0
0
0
0
0
0
0
0
0
0
0
0
0
0
0
0
0
0
0
0
0
0
0
0
0
0
0
0
0
0
0
0
0
0
0
0
0
0
0
0
0
0
0
